 Gaussian 09, Revision D.01,
 Gaussian 09:  EM64L-G09RevD.01 24-Apr-2013

 ---------------------------------------------------
 #p CCSD(T,T1Diag)/aug-cc-pvdz geom=check guess=read
 ---------------------------------------------------

 -------------------
 Title Card Required
 -------------------
 Structure from the checkpoint file:  "H2O_ccsdt_avdz.chk"
 Charge =  0 Multiplicity = 1

                         Standard orientation:
 ---------------------------------------------------------------------
 Center     Atomic      Atomic             Coordinates (Angstroms)
 Number     Number       Type             X           Y           Z
 ---------------------------------------------------------------------
      1          8           0        0.000000    0.000000    0.117646
      2          1           0        0.000000   -0.760117   -0.470585
      3          1           0        0.000000    0.760117   -0.470585
 ---------------------------------------------------------------------

 SCF Done:  E(RHF) =  -76.0411794772     A.U. after   10 cycles
 E2 =    -0.2196826320D+00 EUMP2 =    -0.76260862109172D+02
 CCSD(T)
 CCSD(T)= -0.76273846765D+02

 The electronic state is 1-A1.
 Alpha  occ. eigenvalues --  -20.57791  -1.35461  -0.71719  -0.58486  -0.50911
 Alpha virt. eigenvalues --    0.03537   0.05791   0.17407   0.19687   0.22236
 Alpha virt. eigenvalues --    0.23155   0.28970   0.33090   0.38550   0.40356
 Alpha virt. eigenvalues --    0.43326   0.53861   0.64766   0.65804   0.81009

 Mulliken charges:
               1
     1  O   -0.306398
     2  H    0.153199
     3  H    0.153199
 Sum of Mulliken charges =   0.00000

 Dipole moment (field-independent basis, Debye):
    X=              0.0000    Y=              0.0000    Z=             -2.0015  Tot=              2.0015
 Quadrupole moment (field-independent basis, Debye-Ang):
   XX=             -7.5986   YY=             -4.2689   ZZ=             -6.2668
   XY=              0.0000   XZ=              0.0000   YZ=              0.0000

 Q=-76.2670701\MP4SDQ=-76.2688116\CCSD=-76.2686113\CCSD(T)=-76.2738468\
 Normal termination of Gaussian 09 at Thu Aug 31 18:54:08 2023.
