 Gaussian 09, Revision D.01,
 Gaussian 09:  EM64L-G09RevD.01 24-Apr-2013

 ---------------------------------------------------
 #p CCSD(T,T1Diag)/aug-cc-pvtz geom=check guess=read
 ---------------------------------------------------

 -------------------
 Title Card Required
 -------------------
 Structure from the checkpoint file:  "H2O_ccsdt_avtz.chk"
 Charge =  0 Multiplicity = 1

                         Standard orientation:
 ---------------------------------------------------------------------
 Center     Atomic      Atomic             Coordinates (Angstroms)
 Number     Number       Type             X           Y           Z
 ---------------------------------------------------------------------
      1          8           0        0.000000    0.000000    0.117646
      2          1           0        0.000000   -0.760117   -0.470585
      3          1           0        0.000000    0.760117   -0.470585
 ---------------------------------------------------------------------

 SCF Done:  E(RHF) =  -76.0603284290     A.U. after    9 cycles
 E2 =    -0.2686597353D+00 EUMP2 =    -0.76328988164335D+02
 CCSD(T)
 CCSD(T)= -0.76342322650D+02

 The electronic state is 1-A1.
 Alpha  occ. eigenvalues --  -20.56788  -1.35158  -0.71574  -0.58417  -0.51004
 Alpha virt. eigenvalues --    0.02940   0.04767   0.13595   0.15870   0.17508
 Alpha virt. eigenvalues --    0.18298   0.22728   0.24487   0.26524   0.30045
 Alpha virt. eigenvalues --    0.31040   0.36572   0.43737   0.46608   0.59946

 Mulliken charges:
               1
     1  O   -0.444444
     2  H    0.222222
     3  H    0.222222
 Sum of Mulliken charges =   0.00000

 Dipole moment (field-independent basis, Debye):
    X=              0.0000    Y=              0.0000    Z=             -1.9855  Tot=              1.9855
 Quadrupole moment (field-independent basis, Debye-Ang):
   XX=             -7.5670   YY=             -4.2355   ZZ=             -6.2472
   XY=              0.0000   XZ=              0.0000   YZ=              0.0000

 Q=-76.3322413\MP4SDQ=-76.3341411\CCSD=-76.3336589\CCSD(T)=-76.3423226\
 Normal termination of Gaussian 09 at Thu Aug 31 19:33:55 2023.
