 Gaussian 09, Revision D.01,
 Gaussian 09:  EM64L-G09RevD.01 24-Apr-2013

 ---------------------------------------------------
 #p CCSD(T,T1Diag)/aug-cc-pvdz geom=check guess=read
 ---------------------------------------------------

 -------------------
 Title Card Required
 -------------------
 Structure from the checkpoint file:  "HCN_ccsdt_avdz.chk"
 Charge =  0 Multiplicity = 1

                         Standard orientation:
 ---------------------------------------------------------------------
 Center     Atomic      Atomic             Coordinates (Angstroms)
 Number     Number       Type             X           Y           Z
 ---------------------------------------------------------------------
      1          7           0        0.000000    0.000000    0.649222
      2          6           0        0.000000    0.000000   -0.497042
      3          1           0        0.000000    0.000000   -1.562304
 ---------------------------------------------------------------------

 SCF Done:  E(RHF) =  -92.8880397210     A.U. after   10 cycles
 E2 =    -0.2928045131D+00 EUMP2 =    -0.93180844234080D+02
 CCSD(T)
 CCSD(T)= -0.93202637991D+02

 The electronic state is 1-SG.
 Alpha  occ. eigenvalues --  -15.60901 -11.30120  -1.24505  -0.81223  -0.58177
 Alpha  occ. eigenvalues --   -0.49900  -0.49900
 Alpha virt. eigenvalues --    0.02893   0.08254   0.08439   0.08439   0.15715
 Alpha virt. eigenvalues --    0.16161   0.16161   0.18198   0.24664   0.24664
 Alpha virt. eigenvalues --    0.27114   0.33974   0.41510   0.41510   0.43170

 Mulliken charges:
               1
     1  N   -0.417796
     2  C    0.352686
     3  H    0.065111
 Sum of Mulliken charges =   0.00000

 Dipole moment (field-independent basis, Debye):
    X=              0.0000    Y=              0.0000    Z=             -3.2910  Tot=              3.2910
 Quadrupole moment (field-independent basis, Debye-Ang):
   XX=            -11.9558   YY=            -11.9558   ZZ=             -9.6160
   XY=              0.0000   XZ=              0.0000   YZ=              0.0000

 387\CCSD=-93.1894909\CCSD(T)=-93.202638\RMSD=3.119e-09\PG=C*V [C*(H1C1
 Normal termination of Gaussian 09 at Thu Aug 31 18:54:11 2023.
