 Gaussian 09, Revision D.01,
 Gaussian 09:  EM64L-G09RevD.01 24-Apr-2013

 ---------------------------------------------------
 #p CCSD(T,T1Diag)/aug-cc-pvdz geom=check guess=read
 ---------------------------------------------------

 -------------------
 Title Card Required
 -------------------
 Structure from the checkpoint file:  "HCO_ccsdt_avdz.chk"
 Charge =  0 Multiplicity = 2

                         Standard orientation:
 ---------------------------------------------------------------------
 Center     Atomic      Atomic             Coordinates (Angstroms)
 Number     Number       Type             X           Y           Z
 ---------------------------------------------------------------------
      1          1           0       -0.866790    1.216983    0.000000
      2          6           0        0.061914    0.583307    0.000000
      3          8           0        0.061914   -0.589603    0.000000
 ---------------------------------------------------------------------

 SCF Done:  E(UHF) =  -113.267251271     A.U. after   17 cycles
 E2 =    -0.3090017384D+00 EUMP2 =    -0.11357625300989D+03
 CCSD(T)
 CCSD(T)= -0.11359922925D+03

 The electronic state is 2-A'.
 Alpha  occ. eigenvalues --  -20.63402 -11.36686  -1.47195  -0.86041  -0.71707
 Alpha  occ. eigenvalues --   -0.65461  -0.58131  -0.39103
 Alpha virt. eigenvalues --    0.03477   0.06930   0.08912   0.09954   0.14808
 Alpha virt. eigenvalues --    0.16190   0.21970   0.24694   0.25812   0.28801
 Alpha virt. eigenvalues --    0.33134   0.36412   0.41876   0.47207   0.51116

  Beta  occ. eigenvalues --  -20.62196 -11.34816  -1.44313  -0.80040  -0.67000
  Beta  occ. eigenvalues --   -0.58084  -0.52899
  Beta virt. eigenvalues --    0.03598   0.06136   0.07497   0.08975   0.13471
  Beta virt. eigenvalues --    0.16827   0.17484   0.22161   0.25731   0.25835
  Beta virt. eigenvalues --    0.31505   0.34595   0.38052   0.42979   0.48338

 Mulliken charges and spin densities:
               1          2
     1  H    0.003352   0.142153
     2  C    0.383554   0.689467
     3  O   -0.386906   0.168380
 Sum of Mulliken charges =   0.00000   1.00000

 Dipole moment (field-independent basis, Debye):
    X=             -0.9547    Y=              1.9036    Z=              0.0000  Tot=              2.1295
 Quadrupole moment (field-independent basis, Debye-Ang):
   XX=            -11.3987   YY=            -11.5623   ZZ=            -10.9744
   XY=             -1.1138   XZ=              0.0000   YZ=              0.0000

 .5798728\MP4SDQ=-113.5880614\CCSD=-113.5869644\CCSD(T)=-113.5992292\S2
 Normal termination of Gaussian 09 at Thu Aug 31 18:54:17 2023.
