 Gaussian 09, Revision D.01,
 Gaussian 09:  EM64L-G09RevD.01 24-Apr-2013

 ---------------------------------------------------
 #p CCSD(T,T1Diag)/aug-cc-pvdz geom=check guess=read
 ---------------------------------------------------

 -------------------
 Title Card Required
 -------------------
 Structure from the checkpoint file:  "HNO_ccsdt_avdz.chk"
 Charge =  0 Multiplicity = 1

                         Standard orientation:
 ---------------------------------------------------------------------
 Center     Atomic      Atomic             Coordinates (Angstroms)
 Number     Number       Type             X           Y           Z
 ---------------------------------------------------------------------
      1          8           0        0.062926   -0.620466    0.000000
      2          7           0        0.062926    0.577889    0.000000
      3          1           0       -0.943889    0.918508    0.000000
 ---------------------------------------------------------------------

 SCF Done:  E(RHF) =  -129.811459585     A.U. after   12 cycles
 E2 =    -0.3662714645D+00 EUMP2 =    -0.13017773104923D+03
 CCSD(T)
 CCSD(T)= -0.13020290318D+03

 The electronic state is 1-A'.
 Alpha  occ. eigenvalues --  -20.66521 -15.72370  -1.54412  -0.99263  -0.75011
 Alpha  occ. eigenvalues --   -0.66948  -0.60192  -0.42597
 Alpha virt. eigenvalues --    0.03562   0.06816   0.11078   0.14693   0.16011
 Alpha virt. eigenvalues --    0.19210   0.21826   0.24467   0.25846   0.29643
 Alpha virt. eigenvalues --    0.37145   0.38018   0.45358   0.56746   0.61342

 Mulliken charges:
               1
     1  O   -0.457419
     2  N    0.298054
     3  H    0.159365
 Sum of Mulliken charges =   0.00000

 Dipole moment (field-independent basis, Debye):
    X=             -1.5573    Y=              1.1895    Z=              0.0000  Tot=              1.9597
 Quadrupole moment (field-independent basis, Debye-Ang):
   XX=            -10.9992   YY=            -11.7863   ZZ=            -10.7229
   XY=             -1.6278   XZ=              0.0000   YZ=              0.0000

 CCSD=-130.1885957\CCSD(T)=-130.2029032\RMSD=4.848e-09\PG=CS [SG(H1N1O1
 Normal termination of Gaussian 09 at Thu Aug 31 18:54:20 2023.
