 Gaussian 09, Revision D.01,
 Gaussian 09:  EM64L-G09RevD.01 24-Apr-2013

 ---------------------------------------------------
 #p CCSD(T,T1Diag)/aug-cc-pvdz geom=check guess=read
 ---------------------------------------------------

 -------------------
 Title Card Required
 -------------------
 Structure from the checkpoint file:  "HO2_ccsdt_avdz.chk"
 Charge =  0 Multiplicity = 2

                         Standard orientation:
 ---------------------------------------------------------------------
 Center     Atomic      Atomic             Coordinates (Angstroms)
 Number     Number       Type             X           Y           Z
 ---------------------------------------------------------------------
      1          1           0        0.885783   -0.865712    0.000000
      2          8           0       -0.055361   -0.610410    0.000000
      3          8           0       -0.055361    0.718624    0.000000
 ---------------------------------------------------------------------

 SCF Done:  E(UHF) =  -150.202422055     A.U. after   18 cycles
 E2 =    -0.3660578268D+00 EUMP2 =    -0.15056847988171D+03
 CCSD(T)
 CCSD(T)= -0.15060067482D+03

 The electronic state is 2-A".
 Alpha  occ. eigenvalues --  -20.69892 -20.68290  -1.58270  -1.21349  -0.77513
 Alpha  occ. eigenvalues --   -0.75726  -0.67791  -0.52764  -0.52513
 Alpha virt. eigenvalues --    0.03627   0.12158   0.16807   0.18713   0.21759
 Alpha virt. eigenvalues --    0.23601   0.23789   0.24092   0.33343   0.34185
 Alpha virt. eigenvalues --    0.38584   0.43846   0.47183   0.61446   0.84458

  Beta  occ. eigenvalues --  -20.67525 -20.65728  -1.52024  -1.11046  -0.75484
  Beta  occ. eigenvalues --   -0.65288  -0.57178  -0.48739
  Beta virt. eigenvalues --    0.03655   0.09624   0.12497   0.16857   0.20177
  Beta virt. eigenvalues --    0.21969   0.23637   0.24260   0.28217   0.33409
  Beta virt. eigenvalues --    0.36842   0.38714   0.44614   0.47492   0.61671

 Mulliken charges and spin densities:
               1          2
     1  H    0.253969  -0.024129
     2  O   -0.192415   0.075832
     3  O   -0.061554   0.948297
 Sum of Mulliken charges =   0.00000   1.00000

 Dipole moment (field-independent basis, Debye):
    X=              1.7659    Y=             -0.9371    Z=              0.0000  Tot=              1.9992
 Quadrupole moment (field-independent basis, Debye-Ang):
   XX=             -9.8642   YY=            -10.8456   ZZ=            -11.0241
   XY=             -1.7779   XZ=              0.0000   YZ=              0.0000

 .5787222\MP4SDQ=-150.5858214\CCSD=-150.5886568\CCSD(T)=-150.6006748\S2
 Normal termination of Gaussian 09 at Thu Aug 31 18:54:28 2023.
