 Gaussian 09, Revision D.01,
 Gaussian 09:  EM64L-G09RevD.01 24-Apr-2013

 ---------------------------------------------------
 #p CCSD(T,T1Diag)/aug-cc-pvdz geom=check guess=read
 ---------------------------------------------------

 -------------------
 Title Card Required
 -------------------
 Structure from the checkpoint file:  "N2O_ccsdt_avdz.chk"
 Charge =  0 Multiplicity = 1

                         Standard orientation:
 ---------------------------------------------------------------------
 Center     Atomic      Atomic             Coordinates (Angstroms)
 Number     Number       Type             X           Y           Z
 ---------------------------------------------------------------------
      1          8           0        0.000000    0.000000    1.109905
      2          7           0        0.000000    0.000000   -0.073382
      3          7           0        0.000000    0.000000   -1.195081
 ---------------------------------------------------------------------

 SCF Done:  E(RHF) =  -183.710540542     A.U. after   12 cycles
 E2 =    -0.5444236938D+00 EUMP2 =    -0.18425496423545D+03
 CCSD(T)
 CCSD(T)= -0.18426861708D+03

 The electronic state is 1-SG.
 Alpha  occ. eigenvalues --  -20.66757 -15.85582 -15.71020  -1.62264  -1.43413
 Alpha  occ. eigenvalues --   -0.83563  -0.76562  -0.76562  -0.69936  -0.49329
 Alpha  occ. eigenvalues --   -0.49329
 Alpha virt. eigenvalues --    0.07992   0.10372   0.11838   0.11838   0.16848
 Alpha virt. eigenvalues --    0.16848   0.18216   0.21337   0.21337   0.26632
 Alpha virt. eigenvalues --    0.29316   0.29316   0.34301   0.35387   0.50092

 Mulliken charges:
               1
     1  O   -0.596132
     2  N    0.334431
     3  N    0.261701
 Sum of Mulliken charges =   0.00000

 Dipole moment (field-independent basis, Debye):
    X=              0.0000    Y=              0.0000    Z=             -0.6446  Tot=              0.6446
 Quadrupole moment (field-independent basis, Debye-Ang):
   XX=            -15.4959   YY=            -15.4959   ZZ=            -19.2823
   XY=              0.0000   XZ=              0.0000   YZ=              0.0000

 46596\CCSD=-184.2419701\CCSD(T)=-184.2686171\RMSD=2.315e-09\PG=C*V [C*
 Normal termination of Gaussian 09 at Thu Aug 31 18:54:35 2023.
