 Gaussian 09, Revision D.01,
 Gaussian 09:  EM64L-G09RevD.01 24-Apr-2013

 ---------------------------------------------------
 #p CCSD(T,T1Diag)/aug-cc-pvdz geom=check guess=read
 ---------------------------------------------------

 -------------------
 Title Card Required
 -------------------
 Structure from the checkpoint file:  "NH2_ccsdt_avdz.chk"
 Charge =  0 Multiplicity = 2

                         Standard orientation:
 ---------------------------------------------------------------------
 Center     Atomic      Atomic             Coordinates (Angstroms)
 Number     Number       Type             X           Y           Z
 ---------------------------------------------------------------------
      1          7           0        0.000000    0.000000    0.142608
      2          1           0        0.000000    0.802809   -0.499128
      3          1           0        0.000000   -0.802809   -0.499128
 ---------------------------------------------------------------------

 SCF Done:  E(UHF) =  -55.5749362983     A.U. after   11 cycles
 E2 =    -0.1535104742D+00 EUMP2 =    -0.55728446772471D+02
 CCSD(T)
 CCSD(T)= -0.55751828582D+02

 The electronic state is 2-B1.
 Alpha  occ. eigenvalues --  -15.60757  -1.16662  -0.64508  -0.51453  -0.50854
 Alpha virt. eigenvalues --    0.03480   0.05808   0.15325   0.15399   0.19805
 Alpha virt. eigenvalues --    0.20525   0.28432   0.30853   0.36598   0.37171
 Alpha virt. eigenvalues --    0.40121   0.52793   0.59380   0.61404   0.69527

  Beta  occ. eigenvalues --  -15.57552  -1.04474  -0.62024  -0.46332
  Beta virt. eigenvalues --    0.03645   0.05862   0.07131   0.15700   0.20570
  Beta virt. eigenvalues --    0.20583   0.22726   0.28903   0.31312   0.37432
  Beta virt. eigenvalues --    0.37843   0.43977   0.52783   0.60980   0.61970

 Mulliken charges and spin densities:
               1          2
     1  N   -0.156503   1.154675
     2  H    0.078251  -0.077337
     3  H    0.078251  -0.077337
 Sum of Mulliken charges =   0.00000   1.00000

 Dipole moment (field-independent basis, Debye):
    X=              0.0000    Y=              0.0000    Z=             -1.9017  Tot=              1.9017
 Quadrupole moment (field-independent basis, Debye-Ang):
   XX=             -7.1280   YY=             -5.5354   ZZ=             -7.6657
   XY=              0.0000   XZ=              0.0000   YZ=              0.0000

 P4SDQ=-55.747078\CCSD=-55.7479015\CCSD(T)=-55.7518286\S2=0.759211\S2-1
 Normal termination of Gaussian 09 at Thu Aug 31 18:54:39 2023.
