 Gaussian 09, Revision D.01,
 Gaussian 09:  EM64L-G09RevD.01 24-Apr-2013

 ---------------------------------------------------
 #p CCSD(T,T1Diag)/aug-cc-pvdz geom=check guess=read
 ---------------------------------------------------

 -------------------
 Title Card Required
 -------------------
 Structure from the checkpoint file:  "NH3_ccsdt_avdz.chk"
 Charge =  0 Multiplicity = 1

                         Standard orientation:
 ---------------------------------------------------------------------
 Center     Atomic      Atomic             Coordinates (Angstroms)
 Number     Number       Type             X           Y           Z
 ---------------------------------------------------------------------
      1          7           0        0.000000    0.000002    0.000000
      2          1           0        0.380067    0.921164    0.000000
      3          1           0       -0.987783   -0.131445    0.000000
      4          1           0        0.607716   -0.789735    0.000000
 ---------------------------------------------------------------------

 SCF Done:  E(RHF) =  -56.1972947011     A.U. after    9 cycles
 E2 =    -0.1990375148D+00 EUMP2 =    -0.56396332215863D+02
 CCSD(T)
 CCSD(T)= -0.56416039489D+02

 The electronic state is 1-A'.
 Alpha  occ. eigenvalues --  -15.53596  -1.12924  -0.65340  -0.65339  -0.39010
 Alpha virt. eigenvalues --    0.03781   0.05873   0.05873   0.16080   0.19354
 Alpha virt. eigenvalues --    0.19690   0.19690   0.29037   0.29038   0.31621
 Alpha virt. eigenvalues --    0.37366   0.37366   0.51665   0.51665   0.51868

 Mulliken charges:
               1
     1  N   -0.113108
     2  H    0.037701
     3  H    0.037700
     4  H    0.037706
 Sum of Mulliken charges =   0.00000

 Dipole moment (field-independent basis, Debye):
    X=              0.0000    Y=              0.0000    Z=              0.0000  Tot=              0.0000
 Quadrupole moment (field-independent basis, Debye-Ang):
   XX=             -5.7293   YY=             -5.7292   ZZ=             -9.9985
   XY=              0.0000   XZ=              0.0000   YZ=              0.0000

 6.4107763\CCSD(T)=-56.4160395\RMSD=4.128e-09\PG=CS [SG(H3N1)]\\@
 Normal termination of Gaussian 09 at Thu Aug 31 18:54:41 2023.
