 Gaussian 09, Revision D.01,
 Gaussian 09:  EM64L-G09RevD.01 24-Apr-2013

 ---------------------------------------------------
 #p CCSD(T,T1Diag)/aug-cc-pvdz geom=check guess=read
 ---------------------------------------------------

 -------------------
 Title Card Required
 -------------------
 Structure from the checkpoint file:  "NO2_ccsdt_avdz.chk"
 Charge =  0 Multiplicity = 2

                         Standard orientation:
 ---------------------------------------------------------------------
 Center     Atomic      Atomic             Coordinates (Angstroms)
 Number     Number       Type             X           Y           Z
 ---------------------------------------------------------------------
      1          7           0        0.000000    0.321360    0.000000
      2          8           0        1.098684   -0.140906    0.000000
      3          8           0       -1.098684   -0.140283    0.000000
 ---------------------------------------------------------------------

 SCF Done:  E(UHF) =  -204.066451402     A.U. after   24 cycles
 E2 =    -0.5666422999D+00 EUMP2 =    -0.20463309370215D+03
 CCSD(T)
 CCSD(T)= -0.20465176268D+03

 The electronic state is 2-A'.
 Alpha  occ. eigenvalues --  -20.70045 -20.70040 -15.89075  -1.68968  -1.50923
 Alpha  occ. eigenvalues --   -0.97538  -0.84046  -0.81007  -0.76985  -0.59926
 Alpha  occ. eigenvalues --   -0.53240  -0.50430
 Alpha virt. eigenvalues --    0.06718   0.08917   0.11313   0.13269   0.14203
 Alpha virt. eigenvalues --    0.21876   0.21886   0.23226   0.24490   0.26397
 Alpha virt. eigenvalues --    0.28323   0.37374   0.41005   0.49459   0.64374

  Beta  occ. eigenvalues --  -20.68607 -20.68591 -15.86796  -1.64700  -1.46751
  Beta  occ. eigenvalues --   -0.89058  -0.76152  -0.75162  -0.72019  -0.52907
  Beta  occ. eigenvalues --   -0.49920
  Beta virt. eigenvalues --    0.01469   0.09644   0.10864   0.11434   0.14023
  Beta virt. eigenvalues --    0.14359   0.22126   0.22765   0.23252   0.25217
  Beta virt. eigenvalues --    0.26731   0.28407   0.38301   0.41541   0.51280

 Mulliken charges and spin densities:
               1          2
     1  N    0.964673   0.516630
     2  O   -0.482440   0.243237
     3  O   -0.482233   0.240133
 Sum of Mulliken charges =   0.00000   1.00000

 Dipole moment (field-independent basis, Debye):
    X=             -0.0012    Y=              0.6620    Z=              0.0000  Tot=              0.6620
 Quadrupole moment (field-independent basis, Debye-Ang):
   XX=            -18.4925   YY=            -15.5382   ZZ=            -15.0328
   XY=              0.0002   XZ=              0.0000   YZ=              0.0000

 119555\MP4SDQ=-204.628176\CCSD=-204.6242935\CCSD(T)=-204.6517627\S2=0.
 Normal termination of Gaussian 09 at Thu Aug 31 18:54:56 2023.
